# Time                 	Umin                   	at location            	Umax                   	at location            	Umean                  	UstDev                 	pmin                   	at location            	pmax                   	at location            	pmean                  	pstDev                 	kmin                   	at location            	kmax                   	at location            	kmean                  	kstDev                 	omegamin               	at location            	omegamax               	at location            	omegamean              	omegastDev             
1                      9.7420403912927644e-01 ( 3.6022439577219352e+00 -8.7985308111209082e-01 3.1722029538266999e-01 ) 1.7555995182294970e+02 ( 4.0586466646982444e+00 -1.8598166030040339e-01 3.7945854392437839e-01 ) 8.6111559224694417e+01 5.7228350052421183e-02 -7.2749445255523769e+05 ( 3.7518153421075229e+00 -5.1849632790865374e-01 7.5228047746967994e-02 ) 4.3221076626672526e+05 ( 3.4689256503628854e+00 -5.1700093024344584e-01 5.9444167599290755e-02 ) 7.8066523669571897e+00 4.8712201485171977e+02 5.8965651147489495e-01 ( 3.7517276168093256e+00 -5.2003143715858935e-01 7.5154113478519913e-02 ) 7.8143666352392778e+00 ( 4.1006543618104638e+00 -3.8199812435840662e-02 4.4470070611224582e-01 ) 8.0278122620622983e-01 3.6390838707736857e-02 9.9650406851267303e+02 ( 4.1007955934473186e+00 -8.9576508378446176e-04 5.1252583623469505e-01 ) 8.5064628460744293e+10 ( 3.7516648466842146e+00 -5.1996022192843239e-01 7.5104019627857066e-02 ) 1.3383561627016179e+03 3.0071957927733706e+03 
2                      2.7350571348778507e-01 ( 7.2804621600996355e-03 -9.8255422807181059e-01 6.4705958031796473e-01 ) 2.9999997611347845e+02 ( -7.9141836194668436e-01 -1.7410444286469343e-01 2.3370008493650146e-01 ) 8.6113485414437804e+01 1.5827360785784456e-01 -4.1852522496067255e+05 ( 3.7518153421075229e+00 -5.1849632790865374e-01 7.5228047746967994e-02 ) 2.1260026192850963e+05 ( 1.2703053801397770e+00 -6.8954895197442523e-01 6.3723976867118157e-02 ) 6.3949289365303414e+00 2.7602619861489404e+02 2.8525549600658479e-01 ( 3.7517276168093256e+00 -5.2003143715858935e-01 7.5154113478519913e-02 ) 1.3960757624449382e+01 ( -5.4998882636503439e-02 -8.9088273378744276e-01 3.5250860678758228e-01 ) 6.1194342331266627e-01 4.9771499443594582e-02 1.1979315465210175e+02 ( 2.9427960191670746e+00 -7.1332263893820613e-01 2.2843196420941170e-03 ) 8.5019117922580948e+10 ( 3.7516648466842146e+00 -5.1996022192843239e-01 7.5104019627857066e-02 ) 9.8803848678838131e+02 2.9431565811659812e+03 
3                      2.3694357321434167e-01 ( 2.3940042101359806e-03 -9.7938552977834703e-01 4.8304667682420843e-01 ) 2.9999991296449565e+02 ( 2.1980946568268080e-02 -2.1858727258098462e-01 4.9995989632849491e-01 ) 8.6114415095683597e+01 1.8881852227279358e-01 -1.6130723202094896e+05 ( 2.7919807878918879e+00 -7.3883900058615037e-01 1.8197276470404661e-04 ) 1.2731488214875854e+05 ( 3.7502319166131217e+00 -5.1905619265464475e-01 7.3850820552871774e-02 ) -3.7448723498881692e-01 3.2960419762177260e+01 1.3851016767672000e-01 ( 3.7517276168093256e+00 -5.2003143715858935e-01 7.5154113478519913e-02 ) 4.7271684322267610e+01 ( 3.7517252482283134e+00 -5.1809080723540568e-01 7.5135683963081415e-02 ) 4.8725848278567507e-01 5.4815755784856347e-02 4.0601749994930287e+00 ( 3.5486465448942273e+00 -4.3439065311110076e-01 6.0237421733485383e-02 ) 8.5050019369081818e+10 ( 3.7516648466842146e+00 -5.1996022192843239e-01 7.5104019627857066e-02 ) 7.6808984166909943e+02 2.8971501939218006e+03 
4                      1.9829952023436506e-01 ( 3.9080836118974505e+00 -4.9692829004742789e-01 1.5020050994573397e-01 ) 2.9999999669402473e+02 ( -5.2706997530046329e-01 -6.1272846904014955e-01 2.9015542883084616e-01 ) 8.6114139042711301e+01 1.8307960685082281e-01 -2.1866018120450422e+05 ( 3.3730151629081906e+00 -5.1696136137833504e-01 1.9712677673549686e-01 ) 2.6573457994144864e+05 ( 3.7450636394989063e+00 -5.1917828900517604e-01 6.9676224216082425e-02 ) -3.7800365262062607e+00 1.4417864992162643e+02 8.3719018959603153e-02 ( 3.7517276168093256e+00 -5.2003143715858935e-01 7.5154113478519913e-02 ) 1.6507918334972516e+02 ( 3.7517187531045639e+00 -5.1765876791018661e-01 7.5131324871613059e-02 ) 4.0139594646722226e-01 5.7432417016104201e-02 5.0306063862853989e+00 ( 1.1845390503714031e+00 -6.2195831779733513e-01 6.3179430946872384e-01 ) 8.5072077273912674e+10 ( 3.7516648466842146e+00 -5.1996022192843239e-01 7.5104019627857066e-02 ) 6.2274469396329687e+02 2.8121388521256144e+03 
5                      1.7140461611461710e-01 ( 1.7605203649968555e+00 -1.2983975442766377e-01 5.0424340690241720e-01 ) 2.9999998976281620e+02 ( 3.8433502986533261e+00 -5.4780102318044754e-01 2.2253875517724458e-01 ) 8.6113373249289509e+01 1.6157814109178220e-01 -3.8061401875505690e+05 ( 2.7924242746961432e+00 -7.3873994329813153e-01 3.7676744865146507e-04 ) 2.2073229227481314e+05 ( 3.7450636394989063e+00 -5.1917828900517604e-01 6.9676224216082425e-02 ) -1.1851615762476240e+00 1.3294268650279668e+02 4.7384358045575531e-02 ( -2.4781369820305605e+00 -1.3198690131835740e+00 5.1676847056487722e-02 ) 4.5568536191519007e+02 ( 1.4710185056550484e-01 -6.1656194336755066e-01 4.9934369505311371e-01 ) 3.3954099572497404e-01 5.9475161762356628e-02 1.3366532486747928e-01 ( -2.0887583044890026e-01 -9.7775899739379479e-01 2.1257092867682090e-01 ) 8.5083277404021973e+10 ( 3.7516648466842146e+00 -5.1996022192843239e-01 7.5104019627857066e-02 ) 5.2181038374405773e+02 2.7591072878332429e+03 
6                      1.4654672008811684e-01 ( 4.0087946549616751e+00 -5.5024799841769900e-01 7.7310141683375322e-01 ) 2.9999963891722246e+02 ( 3.8448282291733822e+00 -5.4846064409050954e-01 2.6738585214499261e-01 ) 8.6113420216381940e+01 1.3926140573021742e-01 -3.6457140092206217e+05 ( 2.7923874464957428e+00 -7.3879569901770870e-01 3.2538608172374723e-04 ) 1.2263068272726098e+05 ( 3.7520355393084732e+00 -5.1826109388761388e-01 7.5413990874797679e-02 ) 2.3285951103106388e+00 5.7750953853228374e+01 2.3125511022065046e-02 ( -2.4781369820305605e+00 -1.3198690131835740e+00 5.1676847056487722e-02 ) 8.2688428251953394e+02 ( 3.9059215593351135e+00 -4.2077659989026128e-01 1.5178062004029655e-01 ) 2.9329034498478329e-01 6.1364544657032276e-02 2.9538694600815916e+00 ( -2.4699522319493936e-01 -6.3468797038206937e-01 2.9945985280861642e-01 ) 8.5086508825358505e+10 ( 3.7516648466842146e+00 -5.1996022192843239e-01 7.5104019627857066e-02 ) 4.4850522398241446e+02 2.7717082531189608e+03 
7                      1.0492282619739408e-01 ( 3.6059600321703251e+00 -3.3181876492159257e-01 2.8626299698006280e-01 ) 2.9997746193167615e+02 ( 3.6146871544465564e+00 -2.3562849648000428e-01 2.7932448141928118e-01 ) 8.6113486675821960e+01 1.3533391528714661e-01 -1.3833670815917171e+05 ( 2.7924242746961432e+00 -7.3873994329813153e-01 3.7676744865146507e-04 ) 1.2174420164052557e+05 ( 2.7929706134762577e+00 -7.3870579676267767e-01 3.2833925493854215e-04 ) -2.5083350237830713e+00 3.0562602139654700e+01 1.1304667977896074e-02 ( -2.4781369820305605e+00 -1.3198690131835740e+00 5.1676847056487722e-02 ) 8.1053580189512820e+02 ( 2.7919947795859805e+00 -7.3854493195747384e-01 4.1767934073937683e-04 ) 2.5765088491728172e-01 6.3321221566440322e-02 1.7166062974345095e+00 ( 3.7522947140956511e-02 -6.2850595224787109e-01 3.0802993818825491e-01 ) 8.5091425006036697e+10 ( 3.7516648466842146e+00 -5.1996022192843239e-01 7.5104019627857066e-02 ) 3.9311110104883551e+02 2.7996339836171801e+03 
8                      3.4368843724210132e-02 ( 2.0443101494754305e-02 -5.9233973300276155e-01 3.6674382872979294e-01 ) 2.9999206642797299e+02 ( -4.9850857694679740e-01 -7.4018627533792414e-01 2.6170650303412990e-01 ) 8.6113149149371253e+01 1.4500986419109430e-01 -2.4371291346849067e+05 ( 2.7924242746961432e+00 -7.3873994329813153e-01 3.7676744865146507e-04 ) 5.9028976585374548e+04 ( 2.7755882782274175e+00 -7.4132606691837988e-01 1.1392915161018816e-04 ) -1.5507150336466407e+00 6.4232286524551455e+01 5.5455667373113136e-03 ( -2.4781369820305605e+00 -1.3198690131835740e+00 5.1676847056487722e-02 ) 1.4322011682767572e+03 ( 2.7919947795859805e+00 -7.3854493195747384e-01 4.1767934073937683e-04 ) 2.2949415411604171e-01 6.5635199479939871e-02 6.4167593355864483e-01 ( 1.0455522131486927e+00 -4.2905691749510755e-01 6.1034626947780479e-01 ) 8.5101291551144760e+10 ( 3.7516648466842146e+00 -5.1996022192843239e-01 7.5104019627857066e-02 ) 3.5012728941166910e+02 2.8300789037840836e+03 
9                      5.0158751099865666e-02 ( 3.5597543608291491e+00 -4.4873033951446739e-01 2.4453050070007973e-01 ) 2.9991158179942391e+02 ( 3.3774201888429034e+00 -9.8445794198048875e-01 3.5589101269848988e-01 ) 8.6112891708440628e+01 1.5657074774306307e-01 -2.7085123433845903e+05 ( 2.7924242746961432e+00 -7.3873994329813153e-01 3.7676744865146507e-04 ) 4.4348074818666937e+04 ( 2.7922778021182770e+00 -7.3847233395284950e-01 1.7559219723702795e-04 ) -9.0884955217101226e-01 4.6490423498245605e+01 2.7349237592250034e-03 ( -2.0549765369303485e+00 -1.2461687024232593e+00 4.0977546744170611e-02 ) 1.2164875490291527e+03 ( 2.7919947795859805e+00 -7.3854493195747384e-01 4.1767934073937683e-04 ) 2.0678957950707008e-01 6.8560518984762134e-02 2.9287068398066367e+00 ( -2.3071436346519164e-01 -9.7864292894570226e-01 3.0288965551079794e-01 ) 8.5108376946780212e+10 ( 3.7516648466842146e+00 -5.1996022192843239e-01 7.5104019627857066e-02 ) 3.1594342534137741e+02 2.8635349319278566e+03 
