# Force coefficients
# dragDir           : (1.000000000000e+00 0.000000000000e+00 0.000000000000e+00)
# sideDir           : (0.000000000000e+00 1.000000000000e+00 0.000000000000e+00)
# liftDir           : (0.000000000000e+00 0.000000000000e+00 1.000000000000e+00)
# rollAxis          : (1.000000000000e+00 0.000000000000e+00 0.000000000000e+00)
# pitchAxis         : (0.000000000000e+00 1.000000000000e+00 0.000000000000e+00)
# yawAxis           : (0.000000000000e+00 0.000000000000e+00 1.000000000000e+00)
# magUInf           : 9.000000000000e+01
# lRef              : 4.790000000000e-01
# Aref              : 7.700000000000e-01
# CofR              : (0.000000000000e+00 0.000000000000e+00 0.000000000000e+00)
#
# Time                  Cd                      Cs                      Cl                      CmRoll                  CmPitch                 CmYaw                   Cd(f)                   Cd(r)                   Cs(f)                   Cs(r)                   Cl(f)                   Cl(r) 
1                       3.195383978268e-03  2.604551797879e-02  3.180544464793e-02  6.540272781484e-03  -4.517077882589e-02 3.161224596125e-02  8.137964770618e-03  -4.942580792350e-03 4.463500495064e-02  -1.858948697186e-02 -2.926805650193e-02 6.107350114985e-02
2                       1.883487089268e-03  4.219014257062e-02  7.884474432962e-02  3.079642625584e-02  -1.133656445936e-01 5.026154822663e-02  3.173816980047e-02  -2.985468271120e-02 7.135661951194e-02  -2.916647694132e-02 -7.394327242875e-02 1.527880167584e-01
3                       1.444167952812e-03  4.413792629735e-02  1.069159329704e-01  4.538559794909e-02  -1.537257217029e-01 5.284252305399e-02  4.610768192550e-02  -4.466351397269e-02 7.491148620267e-02  -3.077355990531e-02 -1.002677552177e-01 2.071836881881e-01
4                       1.841658721747e-03  3.696560772290e-02  1.067864994285e-01  4.542475662033e-02  -1.529746786317e-01 4.487339370437e-02  4.634558598120e-02  -4.450392725946e-02 6.335619756582e-02  -2.639058984292e-02 -9.958142891744e-02 2.063679283459e-01
5                       2.850416443572e-03  2.338739519514e-02  7.975701313809e-02  3.155049345396e-02  -1.130627311901e-01 2.938221372000e-02  3.297570167575e-02  -3.012528523218e-02 4.107591131757e-02  -1.768851612243e-02 -7.318422462103e-02 1.529412377591e-01
