# vtk DataFile Version 2.0
x_0mCell
ASCII
DATASET POLYDATA
POINTS 57 double
5 5 1
5 5 3.08999991417
5 5 5.36810016632
5 5 7.85122919083
5 5 10.5578393936
5 5 13.5080451965
5 5 16.7237701416
5 5 20.2289085388
5 5 24.0495109558
5 5 28.2139663696
5 5 32.7532234192
5 5 37.7010116577
5 5 43.0941047668
5 5 48.9725723267
5 5 55.3801040649
5 5 62.364315033
5 5 69.977104187
5 5 78.2750396729
5 5 87.3197937012
5 5 97.1785812378
5 5 107.9246521
5 5 119.637870789
5 5 132.405273438
5 5 146.321746826
5 5 161.490707397
5 5 178.024871826
5 5 196.047119141
5 5 215.691345215
5 5 237.10357666
5 5 260.442901611
5 5 285.882751465
5 5 313.612213135
5 5 343.837310791
5 5 376.782653809
5 5 412.693084717
5 5 451.835479736
5 5 494.500671387
5 5 541.005737305
5 5 591.696228027
5 5 646.948913574
5 5 707.174316406
5 5 772.820007324
5 5 844.373779297
5 5 922.367431641
5 5 1007.38049316
5 5 1100.0447998
5 5 1201.04882812
5 5 1311.14318848
5 5 1431.14611816
5 5 1561.94921875
5 5 1704.5246582
5 5 1859.93188477
5 5 2029.32568359
5 5 2213.96508789
5 5 2415.22192383
5 5 2634.59179688
5 5 2873.70507812
POINT_DATA 57
 FIELD attributes 1
U 3 57 float
3.14140675945 	5.10884367329e-16 	0.000270912076572 4.23831534614 	6.49512779856e-16 	0.000451333952427 4.81011167102 	6.94514748238e-16 	0.000866126013594 5.2034333658 	7.05686121929e-16 	0.0011140173762 5.50747806486 	7.01237257272e-16 	0.00111023545603 5.75965536601 	6.88849518219e-16 	0.00100790433891 5.97814307275 	6.72107477561e-16 	0.000894420485768 6.17296864896 	6.52867559957e-16 	0.000796548024116 6.35024840527 	6.32181002399e-16 	0.000717641303985 6.51400941988 	6.10696642337e-16 	0.000654046674254 6.6670585862 	5.8884911361e-16 	0.000600857326824 6.8114371307 	5.66945529467e-16 	0.000553991720581 6.94867806802 	5.45211626478e-16 	0.000510708507251 7.07996214002 	5.23816809311e-16 	0.000469446980327 7.20621754595 	5.02885497524e-16 	0.000429482666686 7.32818652772 	4.82511498431e-16 	0.000390610093326 7.44647135442 	4.62762327469e-16 	0.000352910349305 7.56156694927 	4.43685777469e-16 	0.00031659928228 7.6738845602 	4.25318938897e-16 	0.00028193520748 7.78376926279 	4.07695573656e-16 	0.000249165526918 7.89151312144 	3.90964250317e-16 	0.000218497267871 7.99736523665 	3.7462230961e-16 	0.000190082135549 8.10153952134 	3.59188815059e-16 	0.000164010677646 8.20422079592 	3.44500288816e-16 	0.000140312436302 8.30556962107 	3.30533256742e-16 	0.000118960550521 8.40572617062 	3.17273232467e-16 	9.98784320716e-05 8.5048133643 	3.04703071046e-16 	8.29509556431e-05 8.60293942807 	2.92803540238e-16 	6.80286432314e-05 8.70019999245 	2.81554652812e-16 	5.49529761096e-05 8.79667985414 	2.70934257254e-16 	4.3527989889e-05 8.89245439439 	2.60920512026e-16 	3.36141792926e-05 8.98759088533 	2.51490241951e-16 	2.49501560816e-05 9.08214935476 	2.42620620127e-16 	1.75307319938e-05 9.17618378887 	2.34288229094e-16 	1.08947741727e-05 9.26974229333 	2.26470022567e-16 	5.42609942261e-06 9.36286875917 	2.19143186577e-16 	9.89350346521e-08 9.45560172571 	2.12285123557e-16 	-3.82532092059e-06 9.54797748605 	2.05873743163e-16 	-8.55825109595e-06 9.64002664257 	1.99887437155e-16 	-1.10581503728e-05 9.73177998874 	1.94305172373e-16 	-1.58893447006e-05 9.82326119315 	1.89106513148e-16 	-1.69827612037e-05 9.91449726125 	1.84271753482e-16 	-2.26698075473e-05 10.0055056722 	1.79781767913e-16 	-2.22957123047e-05 10.0963109733 	1.75618251088e-16 	-2.96317693478e-05 10.1869250994 	1.71763470962e-16 	-2.77275063128e-05 10.2773710499 	1.68200576872e-16 	-3.76311286623e-05 10.3676559016 	1.64913234113e-16 	-3.42000782366e-05 10.457801626 	1.61886107072e-16 	-4.80142257316e-05 10.5478111969 	1.59104215636e-16 	-4.31734259269e-05 10.6377057905 	1.56540406611e-16 	-6.35607841391e-05 10.7274850562 	1.19235631842e-16 	-5.7648447351e-05 10.8171694491 	1.52083642803e-16 	-9.17193237448e-05 10.9067562341 	1.5015799422e-16 	-8.60558414702e-05 10.996265024 	1.48404611451e-16 	-0.000161832578692 11.0856959811 	1.46821655218e-16 	-0.000168111874759 11.1750589066 	1.45401537935e-16 	-0.000527138695108 11.2640926842 	1.45242260093e-16 	-0.000505043516899
