# vtk DataFile Version 2.0
x_0mCell
ASCII
DATASET POLYDATA
POINTS 57 double
5 5 1
5 5 3.08999991417
5 5 5.36810016632
5 5 7.85122919083
5 5 10.5578393936
5 5 13.5080451965
5 5 16.7237701416
5 5 20.2289085388
5 5 24.0495109558
5 5 28.2139663696
5 5 32.7532234192
5 5 37.7010116577
5 5 43.0941047668
5 5 48.9725723267
5 5 55.3801040649
5 5 62.364315033
5 5 69.977104187
5 5 78.2750396729
5 5 87.3197937012
5 5 97.1785812378
5 5 107.9246521
5 5 119.637870789
5 5 132.405273438
5 5 146.321746826
5 5 161.490707397
5 5 178.024871826
5 5 196.047119141
5 5 215.691345215
5 5 237.10357666
5 5 260.442901611
5 5 285.882751465
5 5 313.612213135
5 5 343.837310791
5 5 376.782653809
5 5 412.693084717
5 5 451.835479736
5 5 494.500671387
5 5 541.005737305
5 5 591.696228027
5 5 646.948913574
5 5 707.174316406
5 5 772.820007324
5 5 844.373779297
5 5 922.367431641
5 5 1007.38049316
5 5 1100.0447998
5 5 1201.04882812
5 5 1311.14318848
5 5 1431.14611816
5 5 1561.94921875
5 5 1704.5246582
5 5 1859.93188477
5 5 2029.32568359
5 5 2213.96508789
5 5 2415.22192383
5 5 2634.59179688
5 5 2873.70507812
POINT_DATA 57
 FIELD attributes 3
epsilon 1 57 float
0.178579074771 0.0674967289777 0.0367761031783 0.024168245505 0.0176043242713 0.0136216520352 0.0109499922274 0.00903244830743 0.00758972854097 0.00646653127537 0.00556932165665 0.00483815690816 0.00423270463558 0.00372475491412 0.00329394728803 0.00292520028535 0.00260709585874 0.00233082621916 0.00208948584762 0.00187758291236 0.00169069437361 0.00152521764313 0.00137818860041 0.00124714612548 0.00113002982231 0.00102510180393 0.000930886174778 0.00084612170043 0.000769724425 0.000700757871186 0.000638409089548 0.000581969242525 0.000530817774053 0.000484409366736 0.000442263204213 0.000403953948774 0.000369104326359 0.000337378686078 0.00030847780514 0.000282134147195 0.000258108247556 0.000236185047966 0.000216171434244 0.000197893277254 0.000181193832764 0.000165931239882 0.000151977579882 0.000139216670412 0.000127543640371 0.000116862902607 0.000107088161962 9.8140446697e-05 8.99485600812e-05 8.24469737163e-05 7.55771121863e-05 6.92863005626e-05 6.35768243523e-05
k 1 57 float
0.602672297221 0.629728644765 0.604632119415 0.596389489569 0.593654670583 0.592748625042 0.592437235748 0.592311761518 0.592242905196 0.592193158963 0.592152962717 0.592120050585 0.592093485336 0.592072335897 0.592055601144 0.592042340418 0.592031759632 0.592023232611 0.592016284854 0.59201056383 0.592005809039 0.59200182705 0.591998472483 0.591995634219 0.591993225666 0.591991177936 0.591989435227 0.591987951342 0.591986687999 0.591985611895 0.591984696588 0.591983915357 0.591983253065 0.591982682285 0.591982204514 0.591981778641 0.591981435327 0.591981102399 0.591980864016 0.591980582716 0.591980428602 0.591980161698 0.591980078363 0.591979792559 0.591979769779 0.591979431397 0.591979458463 0.591979023684 0.591979085378 0.591978474123 0.591978541208 0.591977551441 0.591977536234 0.591975430545 0.591974659134 0.591964599618 0.591918282601
nut 1 57 float
0.18305196646 0.528769845353 0.894662488438 1.32451642332 1.80173505229 2.32142062081 2.88478460906 3.4957288412 4.1592593355 4.88087740289 5.66641033837 6.52201953893 7.45426985826 8.4702132923 9.57747115465 10.7843118006 12.0997255591 13.5334996047 15.0962952794 16.7997298463 18.6564641763 20.6802975516 22.8862705864 25.290777191 27.9116864957 30.768475684 33.8823747547 37.2765242778 40.9761473908 45.0087371389 49.4042610073 54.1953830874 59.4177079471 65.1100429039 71.3146909827 78.0777572731 85.4495044548 93.4847031104 102.243079979 111.789697354 122.195531545 133.537860833 145.901040517 159.376847811 174.065550815 190.076131958 207.527789009 226.549914677 247.284233738 269.884330617 294.518766732 321.369720522 350.637812079 382.538503375 417.309669856 455.183601837 495.983451771
