# Residuals            
# Time                 	p                      	k                      	omega                  	Ux                     	Uy                     	Uz                     
1                      	1.0000000000000000e+00	9.9999999999999512e-01	1.3419192570244261e-03	9.9999998551608094e-01	1.0000000000000000e+00	9.9999995847187861e-01
2                      	1.5105466621108180e-01	2.0977796908968760e-01	1.5393724634394599e-04	1.7078645276807601e-02	8.2209112951710059e-02	9.8140982533147569e-02
3                      	1.2413896907223820e-01	7.5582247590951016e-02	9.3652945290901345e-05	1.3778026951142420e-03	7.1811394606888183e-03	7.2714114458553077e-03
4                      	2.3160254823623619e-01	2.9914174914744261e-02	6.6483404231681718e-05	5.0503951420789056e-04	3.3638733569695089e-03	3.8372279499792410e-03
5                      	4.4635405486182439e-01	1.3010703410466951e-02	5.2241783647643403e-05	7.4411198366214121e-04	4.9064765281771642e-03	4.9505251001408226e-03
6                      	9.3487905836949159e-02	8.2980413029402171e-03	4.0014183164546342e-05	7.1183183279634361e-04	5.4267379374416079e-03	5.0291053832293049e-03
7                      	1.6418873885704871e-01	6.2938336002619708e-03	3.0308097636350900e-05	4.6152243434104150e-04	4.3669775666044771e-03	4.4888869185368933e-03
8                      	1.4052116129377529e-01	5.1877319990462157e-03	2.3552277810069170e-05	4.2339258320625383e-04	3.9643110286433940e-03	5.0201511478780748e-03
