# Force
# CofR          : (0.00000000e+00 0.00000000e+00 0.00000000e+00)
#
# Time              (total_x total_y total_z)   (pressure_x pressure_y pressure_z)  (viscous_x viscous_y viscous_z)
0.2                 (1.60855332e-03 -6.86796129e-04 -4.80772170e-02)    (1.71982497e-03 -6.68445488e-04 -4.60534732e-02)    (-1.11271650e-04 -1.83506412e-05 -2.02374374e-03)
0.20025             (1.23305128e-03 -4.72628751e-04 -6.29329014e-02)    (1.34574135e-03 -4.55677506e-04 -6.09075238e-02)    (-1.12690076e-04 -1.69512449e-05 -2.02537757e-03)
0.2005              (1.36842519e-03 -5.76639463e-04 -5.41793926e-02)    (1.48144202e-03 -5.60303572e-04 -5.21564902e-02)    (-1.13016833e-04 -1.63358904e-05 -2.02290241e-03)
0.20075             (1.20236918e-03 -4.58041974e-04 -5.73291656e-02)    (1.31630704e-03 -4.42599659e-04 -5.53060923e-02)    (-1.13937860e-04 -1.54423153e-05 -2.02307328e-03)
0.201               (1.10751210e-03 -3.53350132e-04 -5.54625530e-02)    (1.22214449e-03 -3.38864334e-04 -5.34400194e-02)    (-1.14632388e-04 -1.44857983e-05 -2.02253363e-03)
0.20125             (9.38403390e-04 -1.76711694e-04 -5.67842516e-02)    (1.05424078e-03 -1.63458325e-04 -5.47615241e-02)    (-1.15837388e-04 -1.32533690e-05 -2.02272744e-03)
0.2015              (7.90906655e-04 -1.10568717e-05 -5.75286995e-02)    (9.08074663e-04 9.32256839e-07 -5.55058123e-02) (-1.17168008e-04 -1.19891286e-05 -2.02288725e-03)
